# vtk DataFile Version 3.0
vtk output
ASCII
DATASET STRUCTURED_POINTS
DIMENSIONS 150 150 1
SPACING 1 1 1
ORIGIN 0 0 0
POINT_DATA 22500
FIELD FieldData 4
FDS 1 22500 double
0 1629.4 1664.9 1700.36 1736.29 1772.94 1810.43 1848.74 1887.72 
1927.1 1966.45 2005.12 2042.32 2077.13 2108.48 2135.04 2155.14 2166.72 
2167.23 2153.52 2121.71 2067.09 1983.9 1864.16 1716.81 1580.22 1456.41 
1316.61 1192.08 1080 978.297 885.671 801.304 724.614 655.101 592.286 
535.684 484.804 439.16 398.28 361.708 329.011 299.785 273.654 250.273 
229.332 210.552 193.685 178.512 164.843 152.506 141.354 131.257 122.098 
113.779 106.209 99.3108 93.0151 87.2611 81.9948 77.1686 72.7398 68.6706 
64.9273 61.4797 58.3008 55.3665 52.6554 50.1484 47.8286 45.681 43.6925 
41.8517 40.1488 38.5755 37.1248 35.7914 34.5714 33.4621 32.4622 31.5722 
30.7937 30.1298 29.5851 29.166 28.88 28.7365 28.7464 28.9223 29.2787 
29.832 30.6005 31.6049 32.8684 34.4169 36.2793 38.4879 41.0789 44.0927 
47.5745 51.575 56.151 61.3664 67.2928 74.0108 81.6114 90.1969 99.883 
110.8 123.096 136.936 152.508 170.022 189.715 211.85 236.724 264.67 
296.067 331.343 370.996 415.597 465.801 522.329 585.923 657.267 736.925 
825.426 923.811 1034.72 1130.38 1216.41 1311.77 1409.62 1509 1562.97 
1581.18 1567.76 1522.44 1442.6 1328.3 1224.44 1132.35 1051.25 980.421 
919.409 867.927 825.737 792.623 768.382 0 1629.4 1704.51 1741.57 
1779.04 1817.14 1855.78 1894.92 1934.56 1974.66 2015.02 2055.23 2094.65 
2132.46 2167.71 2199.28 2225.82 2245.64 2256.56 2255.82 2240.01 2205.15 
2146.14 2054.91 1916.35 1775.94 1635.42 1501.84 1362.62 1233.98 1116.96 
1011.37 915.896 829.32 750.738 679.473 614.965 556.707 504.214 457.014 
414.648 376.675 342.673 312.245 285.015 260.637 238.796 219.205 201.609 
185.783 171.526 158.662 147.036 136.512 126.971 118.306 110.424 103.243 
96.6916 90.7049 85.2265 80.2063 75.5999 71.3675 67.4738 63.8876 60.5805 
57.5278 54.7069 52.0982 49.6842 47.4492 45.3799 43.4644 41.6927 40.0561 
38.5476 37.1618 35.8944 34.7429 33.7059 32.7837 31.9781 31.2921 30.7305 
30.2997 30.0074 29.8632 29.8784 30.066 30.4408 31.0198 31.8221 32.8691 
34.1847 35.7959 37.7326 40.0284 42.7207 45.8516 49.4681 53.6228 58.3749 
63.7906 69.9447 76.9212 84.8149 93.7327 103.795 115.138 127.916 142.302 
158.49 176.701 197.18 220.208 246.097 275.208 307.954 344.813 386.343 
433.186 486.055 545.71 612.938 688.601 773.799 870.236 979.047 1096.91 
1209.96 1276.12 1355.78 1448.69 1553.55 1617.13 1640.91 1631.2 1588.96 
1509.77 1385.84 1278.13 1181.91 1096.7 1022.4 958.602 904.866 860.858 
826.309 800.983 768.382 1630.18 1703.75 1741.53 1781.02 1821.54 1862.41 
1903.34 1944.48 1985.95 2027.71 2069.47 2110.48 2149.82 2186.52 2219.51 
2247.55 2269.09 2281.97 2283.35 2269.71 2237.15 2181.32 2096.83 1980.34 
1844.2 1690.05 1560.85 1400.13 1263.99 1143.65 1035.62 938.218 850.057 
770.096 697.561 631.839 572.401 518.759 470.446 427.016 388.039 353.103 
321.814 293.8 268.712 246.229 226.059 207.942 191.644 176.961 163.711 
151.736 140.897 131.068 122.142 114.024 106.627 99.8774 93.7094 88.0643 
82.8906 78.1421 73.7782 69.7626 66.0628 62.65 59.4985 56.5855 53.8905 
51.3957 49.0852 46.9452 44.9635 43.13 41.4359 39.8741 38.4387 37.1257 
35.9322 34.8571 33.9003 33.0637 32.3505 31.7653 31.3146 31.0064 30.8504 
30.8581 31.0427 31.4196 32.006 32.8215 33.888 35.23 36.8752 38.8542 
41.2015 43.9553 47.1588 50.8601 55.113 59.9783 65.5239 71.8265 78.9723 
87.0586 96.1952 106.506 118.131 131.229 145.976 162.575 181.251 202.26 
225.89 252.47 282.377 316.052 354.012 396.863 445.307 500.132 562.182 
632.358 711.693 801.475 903.2 1019.63 1153.97 1259.21 1336.56 1398.27 
1478.4 1559.16 1631.17 1656.84 1649.64 1611.37 1538.05 1421.73 1314.26 
1217.42 1130.36 1053.97 988.196 932.715 887.238 851.511 825.306 791.548 
1593.51 1662.41 1701.35 1745.06 1790.23 1835.02 1878.86 1922.21 1965.72 
2009.76 2054.26 2098.19 2140.32 2179.63 2215.21 2246.11 2271.09 2288.22 
2294.52 2286.29 2259.58 2210.65 2136.03 2033.88 1910.37 1771.65 1623.97 
1448.67 1304.43 1179.13 1067.88 968.027 877.852 796.127 721.956 654.659 
593.679 538.522 488.732 443.879 403.555 367.363 334.92 305.857 279.822 
256.486 235.548 216.738 199.815 184.565 170.802 158.361 147.098 136.884 
127.607 119.167 111.477 104.458 98.0411 92.1668 86.7809 81.8356 77.2886 
73.1024 69.2433 65.6815 62.3904 59.3463 56.5283 53.9178 51.4985 49.2562 
47.1785 45.2548 43.4762 41.8353 40.3262 38.9446 37.6876 36.5538 35.5434 
34.6578 33.9004 33.2761 32.7911 32.4539 32.2742 32.2639 32.4367 32.8083 
33.3964 34.2213 35.3055 36.6744 38.3564 40.3831 42.7899 45.6163 48.9067 
52.7106 57.0836 62.0881 67.7941 74.2808 81.637 89.9633 99.3729 109.994 
121.972 135.469 150.671 167.785 187.047 208.723 233.113 260.566 291.483 
326.338 365.695 410.225 460.711 518.039 583.176 657.177 741.275 836.8 
944.893 1064.48 1190.11 1306.88 1390.77 1463.12 1533.18 1593.46 1638.53 
1657.51 1651.75 1622.23 1564.13 1476.24 1359.81 1261.85 1173.86 1095.53 
1027.56 969.955 922.586 885.294 857.905 822.595 1514.55 1575.02 1618.92 
1670.46 1723.74 1772.31 1822.31 1868.24 1914.15 1961.12 2009.76 2058.33 
2102.45 2147.76 2186.99 2221.96 2252 2275.5 2289.44 2289.71 2272.12 
2233.08 2169.96 2081.63 1970.18 1839.3 1686.59 1504.53 1353.38 1223.09 
1108.25 1005.64 913.182 829.414 753.298 684.078 621.173 564.095 512.408 
465.713 423.634 385.804 351.858 321.435 294.177 269.747 247.829 228.137 
210.419 194.451 180.038 167.006 155.206 144.503 134.779 125.93 117.865 
110.5 103.765 97.5965 91.9371 86.7374 81.9533 77.5455 73.4791 69.7228 
66.249 63.033 60.0532 57.2901 54.727 52.3491 50.1436 48.0996 46.2079 
44.4608 42.8524 41.3779 40.0345 38.8205 37.736 36.7825 35.9634 35.2833 
34.7491 34.369 34.1533 34.1141 34.2657 34.6242 35.2082 36.0385 37.1386 
38.5348 40.2564 42.3363 44.811 47.7215 51.1136 55.0387 59.5541 64.7246 
70.6227 77.3303 84.9395 93.5547 103.294 114.289 126.692 140.673 156.423 
174.16 194.13 216.611 241.922 270.429 302.562 338.832 379.855 426.37 
479.246 539.469 608.115 686.35 775.478 876.995 992.236 1121.59 1257.44 
1357.77 1434.21 1498.54 1552.02 1590.88 1622.02 1635.79 1632.68 1620.9 
1584.97 1518.18 1409.46 1314.99 1227.35 1147.14 1076.71 1016.72 967.133 
927.952 899.102 861.857 1383.53 1434.17 1496.45 1561.6 1620.09 1665.56 
1732.44 1782.55 1830.89 1880.91 1935.17 1986.5 2026.3 2089.67 2135.99 
2176.29 2212.9 2244.68 2268.55 2279.95 2274.17 2247.38 2196.98 2121.67 
2021.46 1896.54 1745.71 1563.12 1409 1274.86 1156.74 1051.49 956.746 
870.815 792.513 721.024 655.769 596.295 542.21 493.165 448.834 408.899 
373.027 340.868 312.062 286.254 263.11 242.323 223.622 206.768 191.554 
177.797 165.337 154.033 143.762 134.411 125.885 118.096 110.969 104.436 
98.4384 92.9236 87.8452 83.1618 78.8368 74.8376 71.1352 67.7038 64.5206 
61.5655 58.821 56.2717 53.9044 51.7078 49.6722 47.7899 46.0544 44.461 
43.0065 41.6893 40.509 39.4674 38.5675 37.8144 37.2147 36.7771 36.5122 
36.4327 36.5531 36.8905 37.4641 38.2956 39.4096 40.8333 42.5975 44.7361 
47.2874 50.2938 53.8031 57.8685 62.5498 67.9142 74.0373 81.0041 88.9108 
97.8659 107.992 119.429 132.333 146.882 163.278 181.749 202.552 225.979 
252.368 282.105 315.649 353.547 396.464 445.198 500.693 564.008 636.277 
718.67 812.492 919.672 1043.76 1191.52 1310.27 1397.78 1462.5 1510.85 
1540.17 1547.6 1575.22 1584.94 1576.98 1598.35 1593.16 1551.19 1462.92 
1379.59 1293.45 1211.39 1136.85 1073.65 1021.4 979.958 949.347 909.745 
1249.32 1295.84 1345.49 1423.85 1479.63 1558.63 1617.09 1663.91 1715.12 
1765.85 1824.53 1877.44 1952.9 2013.19 2064.02 2111.24 2155.94 2197.54 
2232.99 2257.42 2265.4 2252.51 2215.68 2152.88 2063 1946.28 1802.54 
1625.24 1471.18 1334.34 1213.79 1106.46 1009.67 921.594 840.903 766.751 
698.624 636.164 579.062 527.039 479.847 437.235 398.919 364.571 333.826 
306.307 281.652 259.524 239.627 221.701 205.52 190.89 177.638 165.614 
154.686 144.734 135.655 127.357 119.759 112.789 106.384 100.489 95.0553 
90.0384 85.4 81.1059 77.1254 73.4315 70.0002 66.8105 63.8439 61.0845 
58.5184 56.134 53.9212 51.8718 49.9793 48.2387 46.6464 45.2007 43.9013 
42.7495 41.7485 40.9033 40.2209 39.7102 39.382 39.2496 39.3283 39.6358 
40.1922 41.0204 42.146 43.5975 45.4071 47.6104 50.2472 53.362 57.0045 
61.2304 66.102 71.6896 78.0721 85.3384 93.589 102.937 113.512 125.459 
138.943 154.151 171.293 190.611 212.373 236.89 264.513 295.652 330.79 
370.506 415.501 466.619 524.847 591.281 667.064 753.324 851.374 963.551 
1091.55 1240.16 1347.38 1421.59 1467.74 1498.26 1495.36 1508.88 1498.18 
1504.41 1518.85 1548.37 1582.17 1575.59 1531.91 1468.57 1376.92 1292.01 
1210.59 1142.37 1086.41 1042.05 1009.25 966.8 1115.97 1163 1204.03 
1264.97 1334.91 1419.13 1470.94 1506.15 1568.4 1605.25 1672.23 1763.59 
1844.83 1911.92 1972.81 2029.27 2083.6 2136.08 2183.97 2222.65 2245.82 
2248.08 2225.54 2175.55 2097.36 1993.59 1862.44 1693.61 1540.58 1402.53 
1280.75 1172.23 1073.83 983.564 900.181 822.841 751.151 684.939 624.038 
568.265 517.466 471.483 430.1 393.021 359.875 330.256 303.761 280.012 
258.678 239.47 222.139 206.473 192.284 179.41 167.707 157.047 147.318 
138.42 130.267 122.781 115.895 109.55 103.694 98.2812 93.2702 88.6247 
84.3124 80.3048 76.5767 73.1057 69.8726 66.8606 64.0554 61.4445 59.0178 
56.7667 54.6842 52.7652 51.0058 49.4042 47.9597 46.6737 45.5494 44.5917 
43.8077 43.2067 42.8 42.6013 42.6267 42.8948 43.4267 44.2466 45.3812 
46.8606 48.7186 50.9926 53.7243 56.9604 60.7531 65.1606 70.2484 76.09 
82.7683 90.3764 99.02 108.818 119.906 132.436 146.583 162.541 180.535 
200.816 223.669 249.418 278.434 311.145 348.053 389.759 436.988 490.604 
551.61 621.101 700.191 789.996 891.949 1007.39 1136.29 1275.28 1370.29 
1422.61 1435.3 1457.58 1440.93 1434.22 1430.64 1441.09 1465.48 1502.91 
1546.54 1580.42 1570.6 1535.21 1474.87 1395.06 1298.28 1224.66 1163.61 
1115.18 1079.55 1033.71 993.189 1038.64 1074.61 1127.53 1205.64 1267.13 
1304.91 1363.98 1415.32 1451.98 1519.1 1604.19 1704.64 1785.85 1862.91 
1931.87 1997.29 2061.16 2121.43 2175.68 2215.41 2234.05 2226.78 2190.09 
2123.35 2037.71 1922.8 1766.42 1615.52 1479.57 1360.27 1251.8 1151.96 
1059.05 972.374 891.053 814.901 743.96 678.292 617.835 562.535 512.353 
467.169 426.729 390.652 358.489 329.781 304.096 281.055 260.331 241.647 
224.765 209.481 195.614 183.009 171.525 161.039 151.444 142.645 134.558 
127.111 120.241 113.892 108.016 102.567 97.5087 92.806 88.4288 84.3502 
80.5468 76.9984 73.6871 70.598 67.7183 65.0371 62.5456 60.2367 58.1048 
56.146 54.3579 52.74 51.2934 50.0212 48.9283 48.0222 47.3122 46.8102 
46.5305 46.4901 46.7084 47.2079 48.0138 49.1545 50.6619 52.5713 54.9223 
57.7588 61.13 65.0908 69.7024 75.0337 81.1621 88.1747 96.1698 105.258 
115.566 127.234 140.425 155.321 172.128 191.082 212.448 236.527 263.658 
294.228 328.68 367.534 411.401 461.013 517.236 581.059 653.555 735.794 
828.722 933.178 1050.25 1173.42 1287.89 1375.57 1409.04 1408.46 1390.24 
1378.98 1372.77 1374.58 1389.53 1418.1 1463.26 1530.41 1575.23 1590.85 
1582.17 1544.84 1468.05 1391.39 1322.84 1256.62 1200.15 1160.88 1111.22 
883.736 925.819 956.233 997.477 1049.38 1102.22 1163.06 1198.76 1248.15 
1303.68 1372.49 1450.91 1537.17 1626.61 1732.15 1819.47 1896.52 1971.58 
2044.35 2115.67 2174.15 2210.67 2219.95 2197.11 2133.65 2079.45 1986.47 
1859.31 1701.7 1570.49 1458.18 1349.12 1247.22 1150.43 1059.74 973.19 
891.343 814.521 742.961 676.734 615.886 560.54 510.713 466.201 426.604 
391.409 360.08 332.114 307.07 284.574 264.312 246.017 229.462 214.449 
200.802 188.368 177.011 166.613 157.07 148.291 140.198 132.721 125.802 
119.387 113.431 107.892 102.734 97.9258 93.4377 89.2455 85.3276 81.6653 
78.2429 75.0471 72.0665 69.2919 66.716 64.3329 62.1384 60.1301 58.3071 
56.6705 55.2231 53.9702 52.9191 52.0795 51.4638 51.087 50.9669 51.1241 
51.5822 52.3681 53.5117 55.0468 57.0108 59.4455 62.3974 65.9184 70.0663 
74.906 80.5101 86.9602 94.3484 102.778 112.367 123.247 135.569 149.501 
165.238 182.997 203.026 225.605 251.049 279.717 312.009 348.385 389.371 
435.585 487.752 546.721 613.45 688.973 774.302 870.248 977.302 1094.55 
1216.66 1325.31 1377.97 1381.69 1354.84 1338.3 1329.04 1324.95 1330.68 
1348.4 1378.79 1422.96 1482.27 1553.39 1597.53 1617.95 1609.29 1569.25 
1500.14 1449.84 1377.29 1299.23 1253.49 1199.83 788.324 826.402 852.299 
885.59 925.712 969.056 1016.11 1062.05 1113.52 1171.63 1237.82 1311.49 
1392.39 1480.65 1579.88 1691.39 1778.79 1865.01 1951.67 2043.88 2121.85 
2178.16 2206.51 2204.91 2173.74 2123.99 2046.24 1938.21 1796.18 1678.21 
1584.01 1467.96 1362.92 1259.91 1163.8 1071.65 982.015 897.759 819.073 
745.912 678.313 616.674 561.243 511.886 468.146 429.41 395.034 364.422 
337.058 312.514 290.43 270.509 252.494 236.163 221.323 207.803 195.451 
184.137 173.745 164.175 155.342 147.171 139.597 132.564 126.022 119.929 
114.246 108.937 103.975 99.3308 94.9833 90.9125 87.1018 83.5372 80.207 
77.1016 74.2133 71.5361 69.0656 66.7992 64.7357 62.8762 61.2235 59.7826 
58.5611 57.5691 56.8194 56.3277 56.1127 56.1962 56.6033 57.3623 58.5053 
60.0678 62.0897 64.6154 67.694 71.3805 75.7362 80.8297 86.7379 93.5473 
101.355 110.271 120.42 131.94 144.991 159.752 176.427 195.246 216.471 
240.396 267.356 297.724 331.919 370.413 413.741 462.52 517.459 579.376 
649.181 727.841 816.241 914.812 1023.38 1143.92 1269.63 1349.2 1374.51 
1345.59 1320.98 1303.97 1292.93 1290.04 1297.75 1317.47 1349.67 1394.47 
1451.56 1518.55 1597.83 1645.28 1662.53 1650.01 1612.35 1555.61 1473.31 
1403.62 1357.28 1299.17 706.372 740.465 762.98 791.197 824.896 862.957 
904.578 950.087 1000.07 1055.96 1118.56 1187.72 1263.57 1347.66 1442.13 
1554.51 1633.96 1730.12 1834.14 1960.45 2058.63 2134.63 2183.19 2201.77 
2192.17 2157.65 2097.3 2012.05 1907.15 1800.07 1685.59 1604.57 1506.31 
1387.14 1283.86 1186 1088.82 994.713 907.459 826.285 750.585 681.295 
619.15 564.119 515.617 472.845 435.004 401.382 371.376 344.492 320.328 
298.548 278.867 261.036 244.838 230.083 216.603 204.249 192.895 182.429 
172.756 163.795 155.476 147.737 140.527 133.798 127.51 121.626 116.116 
110.951 106.107 101.563 97.303 93.3108 89.5749 86.0851 82.8335 79.8141 
77.0222 74.455 72.1114 69.9921 68.0999 66.44 65.0198 63.8499 62.9435 
62.3171 61.9904 61.9864 62.3317 63.0565 64.1948 65.7845 67.868 70.4924 
73.71 77.5791 82.1649 87.5402 93.7865 100.996 109.271 118.728 129.499 
141.733 155.595 171.278 188.994 208.988 231.536 256.95 285.582 317.825 
354.117 394.946 440.855 492.459 550.45 615.599 688.746 770.732 862.184 
963.13 1074.77 1205.68 1304.6 1364.88 1373.58 1329.64 1300.14 1279.64 
1267.66 1265.56 1274.96 1297.09 1332.47 1380.75 1440.32 1510.04 1600.1 
1668.99 1706.92 1714.86 1695.3 1641.2 1595.89 1519.95 1471.27 1408.26 
636.686 667.138 687.088 711.898 741.538 775.7 814.093 856.827 904.341 
957.376 1016.44 1081.64 1153.18 1231.77 1318.68 1413.67 1509.77 1615.67 
1730.64 1870.54 1982.8 2078.45 2148.04 2186.58 2195.96 2178.5 2135.66 
2069.95 1986.29 1892.31 1783.7 1714.32 1626.8 1526.94 1412.43 1313.07 
1210.45 1105.62 1008.45 918.89 833.519 754.857 684.667 623.09 569.249 
522.007 480.33 443.358 410.392 380.874 354.357 330.471 308.9 289.37 
271.636 255.487 240.733 227.209 214.771 203.296 192.678 182.826 173.664 
165.125 157.154 149.7 142.721 136.179 130.04 124.275 118.86 113.772 
108.993 104.508 100.303 96.3687 92.6968 89.2808 86.1162 83.2002 80.5314 
78.1107 75.9407 74.0265 72.3759 70.9996 69.9112 69.1281 68.6709 68.5641 
68.8358 69.5183 70.6476 72.2642 74.4134 77.1451 80.5153 84.5859 89.4262 
95.1135 101.735 109.387 118.181 128.239 139.702 152.725 167.487 184.189 
203.056 224.347 248.353 275.406 305.876 340.18 378.779 422.18 470.941 
525.68 587.07 655.834 732.701 818.294 912.853 1015.74 1126.13 1250.93 
1319.43 1374.69 1367.51 1317.56 1284.84 1263.19 1251.56 1250.84 1262.56 
1288.36 1329.47 1385.83 1454.21 1524.19 1601.63 1694.47 1748.31 1770.92 
1768.34 1742.51 1701.56 1633.52 1588.51 1523.35 577.891 605.214 623.19 
645.584 672.45 703.758 739.48 779.74 824.853 875.268 931.38 993.444 
1061.75 1136.82 1219.33 1309.77 1407.82 1515.71 1634.09 1775.99 1898.05 
2009.79 2101.96 2160.67 2188.32 2187.52 2160.94 2112.08 2045.74 1968.06 
1884.85 1807.98 1726.77 1639.63 1548.24 1455.57 1353.01 1228.98 1123.62 
1026.07 928.344 837.751 757.826 688.801 629.155 577.128 531.326 490.712 
454.489 422.044 392.893 366.639 342.941 321.495 302.033 284.315 268.132 
253.297 239.649 227.047 215.372 204.523 194.414 184.975 176.143 167.867 
160.102 152.807 145.95 139.499 133.428 127.715 122.34 117.288 112.543 
108.097 103.94 100.066 96.4709 93.1514 90.1065 87.3369 84.8455 82.6374 
80.7203 79.1053 77.8066 76.8421 76.2337 76.0071 76.1923 76.8235 77.9392 
79.5828 81.8023 84.6512 88.189 92.4819 97.6034 103.636 110.672 118.816 
128.183 138.907 151.133 165.03 180.785 198.61 218.745 241.462 267.069 
295.916 328.399 364.959 406.086 452.315 504.227 562.454 627.661 700.516 
781.61 871.246 968.863 1072.37 1180.29 1298.93 1364.99 1384.64 1345.49 
1305.98 1275.74 1255.36 1245.22 1246.52 1261.32 1292.34 1342.5 1412.18 
1506.34 1576.9 1638.84 1730.53 1788.35 1818.91 1826.35 1814.47 1786.71 
1746.99 1707.47 1623.32 528.679 553.428 569.887 590.524 615.424 644.667 
678.343 716.614 759.742 808.063 861.924 921.649 987.611 1060.34 1140.44 
1228.62 1325.52 1431.88 1547.06 1671.54 1795.68 1919.83 2046.11 2126.68 
2171.9 2186.26 2173.74 2138.81 2086.39 2021.96 1950.97 1878.4 1803.02 
1724.41 1642.96 1558.53 1465.67 1363.28 1261.23 1156.75 1037.17 930.242 
838.288 760.954 695.274 638.368 588.29 543.809 504.066 468.41 436.339 
407.444 381.363 357.768 336.366 316.892 299.112 282.818 267.825 253.973 
241.127 229.171 218.009 207.563 197.766 188.562 179.906 171.757 164.08 
156.844 150.024 143.595 137.538 131.834 126.471 121.436 116.721 112.319 
108.227 104.442 100.962 97.7898 94.9271 92.3795 90.1551 88.2649 86.7238 
85.5503 84.7674 84.4022 84.4865 85.0569 86.1543 87.825 90.1205 93.0978 
96.8202 101.358 106.791 113.205 120.701 129.387 139.388 150.845 163.915 
178.774 195.622 214.681 236.207 260.484 287.84 318.646 353.321 392.338 
436.218 485.536 540.913 603.009 672.494 749.984 835.918 930.246 1031.66 
1136.5 1239.8 1349.16 1399.67 1395.76 1345 1306.23 1277.59 1258.78 
1250.31 1253.69 1271.64 1308.15 1366.44 1446.17 1546.92 1609.27 1696.45 
1771.01 1824.95 1857.53 1870.03 1865.07 1845.88 1815.96 1780.07 1696.14 
487.919 510.614 525.917 545.261 568.753 596.512 628.682 665.451 707.065 
753.822 806.052 864.107 928.399 999.445 1077.86 1164.27 1259.32 1363.41 
1476.31 1596.77 1721.95 1850.51 1988.31 2088.01 2149 2176.15 2174.89 
2150.63 2108.61 2053.91 1991.23 1924.18 1854.11 1781.7 1707.14 1629.73 
1547.19 1457.96 1362.72 1250.79 1156.34 1031.3 924.55 838.489 767.131 
705.718 651.479 603.014 559.53 520.397 485.124 453.305 424.572 398.576 
375 353.561 334.002 316.089 299.613 284.388 270.256 257.085 244.763 
233.202 222.329 212.087 202.427 193.309 184.7 176.57 168.893 161.646 
154.807 148.358 142.285 136.575 131.219 126.21 121.546 117.223 113.242 
109.604 106.313 103.374 100.795 98.5877 96.7677 95.354 94.3704 93.8458 
93.8137 94.3128 95.3872 97.086 99.4642 102.583 106.509 111.319 117.095 
123.932 131.934 141.22 151.92 164.185 178.182 194.098 212.143 232.556 
255.601 281.582 310.842 343.774 380.822 422.491 469.344 522.001 581.141 
647.478 721.704 804.399 895.905 996.042 1103.18 1209.96 1309.91 1403.51 
1434.86 1400.14 1357.75 1321.22 1293.77 1276.09 1268.79 1273.48 1293.26 
1332.56 1395.86 1480.81 1588.6 1665.73 1739.86 1804.06 1852.88 1884.12 
1897.9 1896.07 1881.14 1855.67 1821.88 1738.78 454.685 475.78 490.21 
508.611 531.097 557.807 588.908 624.603 665.135 710.79 761.892 818.804 
881.943 951.801 1028.93 1113.89 1207.15 1308.94 1419.14 1537 1660.61 
1787.24 1915.91 2041.48 2120.14 2157.8 2164.84 2147.94 2112.83 2064.53 
2007.37 1944.76 1878.92 1811.18 1741.83 1670.41 1595.99 1517.73 1435.06 
1345.38 1249.86 1138.42 1012.08 918.708 843.519 778.924 721.113 668.736 
621.321 578.45 539.696 504.678 473.018 444.348 418.337 394.693 373.147 
353.443 335.339 318.619 303.093 288.603 275.02 262.24 250.183 238.786 
228.001 217.791 208.124 198.975 190.321 182.137 174.405 167.104 160.218 
153.734 147.642 141.936 136.612 131.669 127.109 122.933 119.146 115.755 
112.768 110.196 108.055 106.366 105.152 104.445 104.279 104.696 105.743 
107.472 109.941 113.216 117.369 122.48 128.638 135.942 144.504 154.449 
165.919 179.071 194.085 211.158 230.515 252.404 277.107 304.94 336.265 
371.492 411.093 455.602 505.623 561.835 624.987 695.873 775.253 863.738 
961.724 1069.23 1186 1298.06 1403.9 1468.8 1483.99 1440.17 1393.27 
1354.97 1327.17 1309.71 1302.56 1307.13 1326.64 1365.76 1428 1512.81 
1620.41 1698.48 1766.75 1824.48 1868.12 1895.87 1908.06 1906.49 1893.24 
1869.98 1837.72 1755.18 428.239 448.119 461.909 479.641 501.435 527.441 
557.836 592.831 632.669 677.631 728.036 784.243 846.66 915.745 991.989 
1075.86 1167.7 1267.62 1375.45 1490.62 1611.83 1736.97 1863.43 1983.53 
2085.71 2132.04 2143.88 2130.82 2099.07 2053.8 1999.24 1938.87 1875.53 
1811.2 1745.87 1679.23 1611.24 1541.76 1469.86 1393.67 1309.28 1210.98 
1090.7 997.373 925.438 858.13 797.667 741.65 690.103 643.154 600.571 
562.077 527.232 495.605 466.853 440.709 416.923 395.224 375.337 357.001 
339.984 324.09 309.159 295.069 281.725 269.059 257.025 245.587 234.724 
224.415 214.643 205.388 196.631 188.354 180.537 173.166 166.229 159.721 
153.637 147.978 142.748 137.95 133.591 129.677 126.218 123.226 120.717 
118.711 117.234 116.318 116 116.324 117.339 119.101 121.672 125.123 
129.528 134.974 141.555 149.376 158.556 169.228 181.543 195.668 211.794 
230.132 250.919 274.417 300.922 330.766 364.322 402.021 444.351 491.873 
545.229 605.154 672.478 748.109 832.954 927.835 1033.33 1151.35 1289.78 
1405.25 1489.27 1537.86 1547.23 1515.39 1451.74 1408.51 1379.19 1361.18 
1352.94 1355.57 1372.12 1406.27 1461.55 1538.53 1640.47 1714.37 1778.2 
1830.81 1868.16 1889.99 1897.64 1893.84 1880.59 1858.7 1827.94 1747.06 
408.006 426.996 440.343 457.639 479.007 504.605 534.617 569.256 608.767 
653.426 703.543 759.463 821.57 890.287 966.044 1049.23 1140.11 1238.7 
1344.74 1457.67 1576.6 1700.09 1826.69 1948.17 2052.15 2099.8 2112.2 
2099.06 2066.94 2021.04 1965.52 1904 1840.42 1778.67 1716.66 1653.93 
1591.28 1529.58 1468.05 1405.04 1337.02 1259.65 1171.54 1079.94 1025.78 
948.27 884.56 822.964 766.955 715.459 668.474 626.136 587.881 553.033 
521.184 492.145 465.767 441.808 419.952 399.878 381.288 363.929 347.594 
332.127 317.414 303.377 289.969 277.163 264.947 253.316 242.263 231.776 
221.842 212.442 203.555 195.165 187.258 179.826 172.866 166.38 160.374 
154.855 149.831 145.311 141.306 137.829 134.896 132.528 130.75 129.597 
129.107 129.325 130.305 132.106 134.794 138.442 143.132 148.952 156.003 
164.397 174.26 185.731 198.972 214.162 231.503 251.219 273.562 298.811 
327.274 359.297 395.265 435.617 480.854 531.554 588.384 652.125 723.688 
804.119 894.581 996.417 1110.56 1233.54 1362.27 1489.66 1566.49 1606.16 
1611.02 1581.78 1524.18 1479.77 1449.15 1430.52 1419.69 1418.48 1429.77 
1456.44 1501.44 1568.31 1656.96 1721.91 1778.46 1822.43 1850.57 1863.06 
1862.89 1854.19 1839.7 1819.43 1791.11 1714.12 393.543 411.927 425.006 
442.072 463.257 488.721 518.655 553.277 592.83 637.584 687.835 743.907 
806.15 874.938 950.644 1033.59 1123.94 1221.64 1326.4 1440.15 1555.66 
1678.05 1807.64 1937.54 2020.93 2061.77 2069.83 2052.44 2015.99 1965.37 
1904.38 1836.22 1769.47 1709.49 1651.29 1592.33 1534.68 1479.83 1427.57 
1378.43 1329.83 1276.07 1218.8 1160.86 1109.72 1053.35 993.276 916.58 
852.86 796.539 744.198 697.593 655.824 617.611 582.288 549.796 520.292 
493.673 469.584 447.614 427.379 408.527 390.775 373.911 357.786 342.302 
327.408 313.089 299.351 286.209 273.678 261.764 250.464 239.763 229.641 
220.076 211.05 202.552 194.578 187.134 180.227 173.87 168.074 162.851 
158.214 154.176 150.754 147.97 145.849 144.427 143.743 143.845 144.79 
146.638 149.461 153.335 158.346 164.587 172.163 181.193 191.808 204.158 
218.413 234.765 253.428 274.644 298.68 325.833 356.424 390.811 429.388 
472.594 520.932 574.98 635.421 703.066 778.897 864.097 960.187 1069.25 
1193.03 1320.72 1445.57 1566.96 1637.11 1671.37 1673.63 1639.66 1619.6 
1568.84 1534.66 1516.66 1500.04 1492.85 1497.12 1516.5 1555.18 1620.57 
1678.06 1727.03 1768.8 1797.46 1811.54 1811.46 1800.52 1784.25 1766.68 
1748.31 1723.94 1654.34 384.518 402.551 415.523 432.556 453.787 479.385 
509.547 544.495 584.473 629.746 680.593 737.306 800.191 869.56 945.715 
1028.89 1119.16 1216.4 1322.81 1451.63 1554.01 1673.09 1812.95 1919.27 
1986.43 2016.99 2016.32 1990.9 1946.3 1886.44 1814.87 1733.52 1660.71 
1602.24 1550.06 1493.34 1440.56 1392.94 1345.17 1308.39 1280.26 1248.07 
1220.45 1189.42 1155.46 1117.45 1073.83 1020.06 947.746 887.689 827.86 
776.804 732.08 690.793 651.714 614.961 581.494 551.598 524.84 500.69 
478.688 458.337 439.21 420.995 403.478 386.523 370.065 354.096 338.648 
323.772 309.52 295.93 283.021 270.793 259.229 248.299 237.977 228.245 
219.097 210.539 202.584 195.25 188.554 182.512 177.14 172.453 168.468 
165.206 162.695 160.969 160.069 160.046 160.957 162.867 165.85 169.986 
175.363 182.079 190.244 199.98 211.426 224.74 240.103 257.718 277.819 
300.664 326.541 355.766 388.677 425.641 467.052 513.344 565.004 622.604 
686.833 758.542 838.82 929.065 1030.94 1147.73 1291.07 1423.98 1543.41 
1640.04 1701.88 1733.33 1739.52 1725.81 1705.77 1672.64 1629.52 1622 
1588.44 1572.67 1567.2 1582.32 1621.82 1655.51 1688.21 1716.91 1738.37 
1746.42 1741.82 1728.83 1706.62 1683.09 1657.93 1639.91 1620.29 1564.58 
380.693 398.613 411.633 428.822 450.327 476.327 507.027 542.66 583.473 
629.726 681.681 739.594 803.715 874.286 951.531 1035.59 1126.41 1224.03 
1333.27 1463.67 1575.45 1679.8 1808.03 1896.08 1947.04 1963.77 1951.03 
1914.64 1858.22 1785.81 1699.43 1590.28 1509.8 1452.24 1414.67 1348.57 
1300.02 1269.37 1213.8 1185.96 1185.06 1161.2 1173.02 1167.93 1155.82 
1138.48 1116.32 1087.77 1046.64 994.245 917.702 863.526 818.092 775.101 
732.234 689.812 651.151 617.036 586.952 559.95 535.83 513.911 493.488 
474.05 455.259 436.899 418.863 401.139 383.784 366.903 350.612 335.012 
320.169 306.114 292.838 280.304 268.469 257.301 246.786 236.931 227.754 
219.279 211.532 204.535 198.308 192.868 188.233 184.425 181.47 179.402 
178.265 178.109 178.994 180.988 184.165 188.608 194.407 201.664 210.49 
221.012 233.375 247.745 264.314 283.303 304.962 329.575 357.454 388.939 
424.39 464.179 508.693 558.345 613.599 675.016 743.302 819.419 904.759 
1000.94 1108.4 1224.36 1352.57 1496.34 1612.44 1700.3 1756.51 1785.13 
1792.19 1783.83 1766.63 1742.39 1715.7 1697.04 1674.73 1654.8 1628.92 
1644.54 1655.22 1664.14 1672.91 1678.23 1675.63 1659.74 1621.13 1594.01 
1565.23 1547.41 1504.16 1483.01 1467.77 1440.71 381.914 399.954 413.173 
430.708 452.715 479.388 510.948 547.64 589.724 637.459 691.092 750.846 
816.915 889.49 968.752 1054.79 1147.79 1250.57 1375.93 1485.92 1577.04 
1699.15 1802.42 1869.42 1901 1900.26 1872.22 1823.1 1754.05 1667.85 
1569.38 1454.93 1371.92 1309.01 1257.33 1206.24 1162.12 1124.31 1088.34 
1067.18 1060.74 1060.95 1089.5 1102.73 1111.11 1117.63 1119.47 1116.13 
1100.82 1067.08 1003.57 955.918 917.749 875.84 829.393 777.997 732.359 
692.681 658.471 627.036 599.816 576.008 554.328 533.868 514.045 494.486 
474.981 455.475 436.02 416.798 398.041 379.967 362.735 346.436 331.087 
316.638 303.019 290.169 278.058 266.687 256.08 246.271 237.295 229.183 
221.961 215.648 210.265 205.831 202.373 199.926 198.531 198.241 199.116 
201.225 204.644 209.454 215.746 223.622 233.194 244.591 257.964 273.488 
291.367 311.841 335.185 361.713 391.771 425.733 463.979 506.888 554.829 
608.18 667.375 732.963 805.682 886.686 978.03 1082.28 1199.21 1314.18 
1436.61 1570.36 1674.31 1750.87 1798.74 1821.95 1826.05 1816.6 1798.5 
1775.08 1749.94 1726.82 1704.21 1683.2 1663.22 1654.05 1644.35 1633.26 
1621.06 1603.58 1579.85 1543.5 1490.74 1454.26 1418.68 1386.65 1356.27 
1336.94 1322.15 1297.42 388.111 406.505 420.075 438.145 460.886 488.509 
521.258 559.402 603.216 652.97 708.903 771.212 840.071 915.687 998.351 
1088.63 1187.97 1298.73 1425.87 1525.98 1599.05 1695.88 1790.34 1836.67 
1845.72 1822.73 1776.66 1714.75 1634.78 1534.73 1417.79 1320.59 1242.48 
1179.67 1126.31 1079.93 1039.61 1005.17 977.697 960.507 953.963 956.534 
971.779 991.145 1016.51 1057.99 1088.47 1111.69 1122.56 1116.92 1092.9 
1052.78 1038.34 1003.41 954.683 884.03 830.28 782.552 744.66 704.512 
672.035 645.587 622.576 601.347 580.892 560.547 539.904 518.75 497.027 
475.03 453.217 432.013 411.747 392.623 374.705 357.934 342.186 327.351 
313.366 300.219 287.939 276.568 266.155 256.742 248.362 241.039 234.795 
229.648 225.626 222.76 221.093 220.677 221.571 223.844 227.569 232.825 
239.698 248.288 258.704 271.076 285.56 302.339 321.632 343.704 368.861 
397.459 429.891 466.573 507.916 554.3 606.068 663.559 727.188 797.476 
875.026 960.99 1058.61 1173.23 1311.29 1418.52 1544.38 1648.08 1731.06 
1790.67 1826.11 1840.53 1838.35 1824.07 1801.55 1774.02 1744.54 1715.34 
1686.77 1659.57 1632.89 1606.91 1582.13 1557.11 1526.38 1494.46 1455.17 
1397.34 1353.01 1314.7 1278.17 1245.19 1218.03 1197.64 1180.34 1145.56 
399.293 418.284 432.362 451.159 474.868 503.723 538.001 577.999 624.019 
676.344 735.213 800.821 873.37 953.206 1041.1 1139.11 1251.8 1381.08 
1490.74 1579.63 1640.27 1726.08 1780.52 1797.64 1779.26 1728.19 1662.65 
1587.61 1496.34 1381.06 1280.69 1195.01 1123.59 1064.05 1013.49 970.206 
933.423 903.194 880.24 865.722 859.889 862.428 874.015 894.137 922.717 
963.573 1026.75 1078.27 1113.4 1133.85 1141.3 1135.16 1121.84 1094.56 
1055.56 1005.5 953.433 890.303 857.882 794.803 753.54 723.456 699 
677.347 656.872 636.473 615.475 593.077 568.902 543.546 517.866 492.63 
468.438 445.689 424.536 404.905 386.592 369.399 353.204 337.972 323.729 
310.532 298.442 287.515 277.793 269.305 262.075 256.122 251.47 248.151 
246.207 245.687 246.649 249.157 253.278 259.082 266.649 276.068 287.442 
300.9 316.599 334.734 355.543 379.319 406.415 437.24 472.253 511.929 
556.719 607.009 663.124 725.41 794.333 870.286 953.061 1042.45 1143.58 
1260.49 1393.2 1523.34 1627.02 1709.24 1772.15 1813.81 1834.77 1837.76 